integrator      = md
dt              = 0.002
nsteps          = 50000          ; 100 ps
nstxout-compressed = 5000
continuation    = no
constraint_algorithm = lincs
constraints     = h-bonds
lincs_iter      = 1
lincs_order     = 4
cutoff-scheme   = Verlet
ns_type         = grid
nstlist         = 20
rcoulomb        = 1.2
rvdw            = 1.2
coulombtype     = PME
pme_order       = 4
fourierspacing  = 0.16
tcoupl          = V-rescale
tc-grps         = Protein_LIG Water_and_ions
tau_t           = 0.1   0.1
ref_t           = 310   310
pcoupl          = no
pbc             = xyz
DispCorr        = EnerPres
gen_vel         = yes
gen_temp        = 310
gen_seed        = -1
